                         Program Version 6.1.0  -  RELEASE   -
|  1> !B3LYP DEF2-SVP OPT D4
|  2> * xyzfile 0 1 reactants.xyz                           ****END OF INPUT****
 Total Charge           Charge          ....    0
 Multiplicity           Mult            ....    1
 Number of Electrons    NEL             ....   50
 Basis Dimension        Dim             ....  124

ORBITAL ENERGIES
----------------

  NO   OCC          E(Eh)            E(eV)
   0   2.0000     -19.226386      -523.1766
   1   2.0000     -19.186075      -522.0796
   2   2.0000     -19.106715      -519.9202
   3   2.0000     -10.297732      -280.2155
   4   2.0000     -10.200210      -277.5618
   5   2.0000     -10.175683      -276.8944
   6   2.0000      -1.156730       -31.4762
   7   2.0000      -1.061582       -28.8871
   8   2.0000      -0.978226       -26.6189
   9   2.0000      -0.782664       -21.2974
  10   2.0000      -0.703898       -19.1540
  11   2.0000      -0.631985       -17.1972
  12   2.0000      -0.542978       -14.7752
  13   2.0000      -0.518728       -14.1153
  14   2.0000      -0.506573       -13.7846
  15   2.0000      -0.503167       -13.6919
  16   2.0000      -0.423053       -11.5119
  17   2.0000      -0.415195       -11.2980
  18   2.0000      -0.412677       -11.2295
  19   2.0000      -0.401708       -10.9310
  20   2.0000      -0.372324       -10.1315
  21   2.0000      -0.354806        -9.6548
  22   2.0000      -0.350295        -9.5320
  23   2.0000      -0.283979        -7.7275
  24   2.0000      -0.141327        -3.8457
  25   0.0000       0.003003         0.0817
  26   0.0000       0.042516         1.1569
  27   0.0000       0.054392         1.4801
  28   0.0000       0.075363         2.0507
  29   0.0000       0.120893         3.2897

MULLIKEN ATOMIC CHARGES
-----------------------
   0 C :    0.080989
   1 C :    0.036882
   2 O :   -0.065652
   3 O :   -0.158346
   4 C :   -0.180253
   5 O :   -0.278368
   6 H :    0.033002
   7 H :    0.032330
   8 H :    0.032819
   9 H :    0.037281
  10 H :    0.175239
  11 H :   -0.028204
  12 H :    0.139503
  13 H :    0.142779
Sum of atomic charges:   -0.0000000

LOEWDIN ATOMIC CHARGES
----------------------
   0 C :   -0.052348
   1 C :    0.013767
   2 O :    0.128465
   3 O :   -0.005744
   4 C :   -0.260664
   5 O :   -0.124411
   6 H :    0.037907
   7 H :    0.041725
   8 H :    0.037330
   9 H :    0.003229
  10 H :    0.085674
  11 H :   -0.031576
  12 H :    0.063446
  13 H :    0.063198

  Mayer bond orders larger than 0.100000
B(  0-C ,  1-C ) :   1.0864 B(  0-C ,  6-H ) :   0.9416 B(  0-C ,  7-H ) :   0.9572
B(  0-C ,  8-H ) :   0.9401 B(  1-C ,  2-O ) :   1.5014 B(  1-C ,  3-O ) :   1.2220
B(  1-C ,  4-C ) :   0.3509 B(  2-O ,  4-C ) :   1.0037 B(  3-O , 10-H ) :   0.9533
B(  4-C ,  9-H ) :   0.9859 B(  4-C , 11-H ) :   0.9572 B(  5-O , 12-H ) :   1.0130
B(  5-O , 13-H ) :   1.0090

Dispersion correction           -0.011202507
FINAL SINGLE POINT ENERGY      -344.245343101728
Dispersion correction             ... done (  0.0 sec)
Dispersion correction           -0.011132665
FINAL SINGLE POINT ENERGY      -344.252066526323
Dispersion correction             ... done (  0.0 sec)
Dispersion correction           -0.011132864
FINAL SINGLE POINT ENERGY      -344.254715075360
Dispersion correction             ... done (  0.0 sec)
FINAL SINGLE POINT ENERGY      -344.257416496695
FINAL SINGLE POINT ENERGY      -344.259481293305
FINAL SINGLE POINT ENERGY      -344.263349770495
FINAL SINGLE POINT ENERGY      -344.269500932441
FINAL SINGLE POINT ENERGY      -344.278753613015
FINAL SINGLE POINT ENERGY      -344.288771606918
FINAL SINGLE POINT ENERGY      -344.304792861997
FINAL SINGLE POINT ENERGY      -344.377883892932
FINAL SINGLE POINT ENERGY      -344.377937042452
FINAL SINGLE POINT ENERGY      -344.378002499589
FINAL SINGLE POINT ENERGY      -344.378119397277
FINAL SINGLE POINT ENERGY      -344.378270356290
FINAL SINGLE POINT ENERGY      -344.378431472388
FINAL SINGLE POINT ENERGY      -344.378575705480
Dispersion correction           -0.011355581
FINAL SINGLE POINT ENERGY      -344.378676584249
Dispersion correction             ... done (  0.0 sec)
Dispersion correction           -0.011394935
FINAL SINGLE POINT ENERGY      -344.378750125893
Dispersion correction             ... done (  0.0 sec)

CARTESIAN COORDINATES (ANGSTROEM)
---------------------------------
  C     29.580063  -16.097330   -0.003766
  C     30.545086  -14.959238   -0.233042
  O     31.618347  -15.073221    0.574311
  O     30.378148  -14.049748   -1.007413
  C     32.624637  -14.054280    0.500981
  O     35.200128  -15.819178   -0.491300
  H     28.869235  -16.149631   -0.837015
  H     29.024466  -15.900815    0.928335
  H     30.115116  -17.049154    0.125058
  H     33.485758  -14.425149   -0.077875
  H     32.215545  -13.141689    0.040969
  H     32.957845  -13.863357    1.528575
  H     35.991934  -16.266372   -0.819570
  H     34.618226  -16.548452   -0.228247

Dispersion correction           -0.011471158
FINAL SINGLE POINT ENERGY      -344.378878630501
Dispersion correction             ... done (  0.0 sec)
                             ****ORCA TERMINATED NORMALLY****
TOTAL RUN TIME: 0 days 0 hours 17 minutes 28 seconds 203 msec
