                         Program Version 6.1.0  -  RELEASE   -
|  1> ! HF DEF2-SVP
|  2> * XYZ 0 1
|  3> N         18.51030      -12.55830        0.00000
|  4> C         16.82490      -12.01560        0.00000
|  5> C         16.82490      -10.23440        0.00000
|  6> C         18.51030       -9.69150        0.00000
|  7> C         15.28220      -12.90620        0.00000
|  8> C         15.28220       -9.34380        0.00000
|  9> C         19.54980      -11.12500        0.00000
| 10> C         13.73970      -12.01560        0.00000
| 11> C         13.73970      -10.23440        0.00000
| 12> H         18.85330      -13.60800        0.00000
| 13> H         18.85330       -8.64180        0.00000
| 14> H         15.28220      -14.01050        0.00000
| 15> H         15.28220       -8.23950        0.00000
| 16> H         20.65410      -11.12500        0.00000
| 17> H         12.78340      -12.56780        0.00000
| 18> H         12.78340       -9.68220        0.00000
| 19> **                         ****END OF INPUT****

CARTESIAN COORDINATES (ANGSTROEM)
---------------------------------
  N     18.510300  -12.558300    0.000000
  C     16.824900  -12.015600    0.000000
  C     16.824900  -10.234400    0.000000
  C     18.510300   -9.691500    0.000000
  C     15.282200  -12.906200    0.000000
  C     15.282200   -9.343800    0.000000
  C     19.549800  -11.125000    0.000000
  C     13.739700  -12.015600    0.000000
  C     13.739700  -10.234400    0.000000
  H     18.853300  -13.608000    0.000000
  H     18.853300   -8.641800    0.000000
  H     15.282200  -14.010500    0.000000
  H     15.282200   -8.239500    0.000000
  H     20.654100  -11.125000    0.000000
  H     12.783400  -12.567800    0.000000
  H     12.783400   -9.682200    0.000000

 Total Charge           Charge          ....    0
 Multiplicity           Mult            ....    1
 Number of Electrons    NEL             ....   62
 Basis Dimension        Dim             ....  161

ORBITAL ENERGIES
----------------

  NO   OCC          E(Eh)            E(eV)
   0   2.0000     -15.631997      -425.3683
   1   2.0000     -11.390626      -309.9547
   2   2.0000     -11.375263      -309.5366
   3   2.0000     -11.360589      -309.1373
   4   2.0000     -11.344412      -308.6971
   5   2.0000     -11.343254      -308.6656
   6   2.0000     -11.342521      -308.6457
   7   2.0000     -11.336856      -308.4915
   8   2.0000     -11.335970      -308.4674
   9   2.0000      -1.076173       -29.2841
  10   2.0000      -0.966764       -26.3070
  11   2.0000      -0.930519       -25.3207
  12   2.0000      -0.898201       -24.4413
  13   2.0000      -0.881357       -23.9830
  14   2.0000      -0.801614       -21.8130
  15   2.0000      -0.768902       -20.9229
  16   2.0000      -0.756747       -20.5921
  17   2.0000      -0.659348       -17.9418
  18   2.0000      -0.628031       -17.0896
  19   2.0000      -0.591635       -16.0992
  20   2.0000      -0.547760       -14.9053
  21   2.0000      -0.520355       -14.1596
  22   2.0000      -0.504173       -13.7193
  23   2.0000      -0.484141       -13.1741
  24   2.0000      -0.462161       -12.5760
  25   2.0000      -0.452700       -12.3186
  26   2.0000      -0.452565       -12.3149
  27   2.0000      -0.378483       -10.2990
  28   2.0000      -0.329113        -8.9556
  29   2.0000      -0.278181        -7.5697
  30   2.0000      -0.261380        -7.1125
  31   0.0000       0.031397         0.8544
  32   0.0000       0.063843         1.7373
  33   0.0000       0.104180         2.8349
  34   0.0000       0.110848         3.0163
  35   0.0000       0.165128         4.4934

MULLIKEN ATOMIC CHARGES
-----------------------
   0 N :   -0.543239
   1 C :    0.153120
   2 C :   -0.115289
   3 C :   -0.121325
   4 C :   -0.107239
   5 C :   -0.058991
   6 C :    0.099967
   7 C :   -0.086797
   8 C :   -0.110704
   9 H :    0.228078
  10 H :    0.110657
  11 H :    0.104623
  12 H :    0.105100
  13 H :    0.128948
  14 H :    0.108305
  15 H :    0.104786
Sum of atomic charges:   -0.0000000

LOEWDIN ATOMIC CHARGES
----------------------
   0 N :   -0.245841
   1 C :    0.083291
   2 C :   -0.047435
   3 C :   -0.071982
   4 C :   -0.058639
   5 C :   -0.022720
   6 C :    0.087360
   7 C :   -0.022455
   8 C :   -0.047472
   9 H :    0.120574
  10 H :    0.039220
  11 H :    0.034619
  12 H :    0.036332
  13 H :    0.043503
  14 H :    0.037081
  15 H :    0.034564

  Mayer bond orders larger than 0.100000
B(  0-N ,  1-C ) :   0.9467 B(  0-N ,  6-C ) :   0.9470 B(  0-N ,  9-H ) :   0.8908
B(  1-C ,  2-C ) :   1.2835 B(  1-C ,  4-C ) :   1.2926 B(  2-C ,  3-C ) :   1.0870
B(  2-C ,  5-C ) :   1.2965 B(  3-C ,  6-C ) :   1.7032 B(  3-C , 10-H ) :   0.9607
B(  4-C ,  5-C ) :   0.1056 B(  4-C ,  7-C ) :   1.4198 B(  4-C , 11-H ) :   0.9572
B(  5-C ,  8-C ) :   1.4370 B(  5-C , 12-H ) :   0.9570 B(  6-C , 13-H ) :   0.9484
B(  7-C ,  8-C ) :   1.3409 B(  7-C , 14-H ) :   0.9557 B(  8-C , 15-H ) :   0.9563

FINAL SINGLE POINT ENERGY      -360.350907976474

DIPOLE MOMENT
-------------

Method             : SCF
Type of density    : Electron Density
Multiplicity       :   1
Irrep              :   0
Energy             :  -360.3509079764740477 Eh
Basis              : AO
                                X                 Y                 Z
Electronic contribution:      1.242197746      -0.295878556       0.000000000
Nuclear contribution   :     -0.943783276       0.152657422       0.000000000
                        -----------------------------------------
Total Dipole Moment    :      0.298414471      -0.143221134       0.000000000
                        -----------------------------------------
Magnitude (a.u.)       :      0.331003761
Magnitude (Debye)      :      0.841344697

Rotational constants in cm-1:             0.083865             0.033880             0.024132
Rotational constants in MHz :          2514.208060          1015.709241           723.445946

                             ****ORCA TERMINATED NORMALLY****
TOTAL RUN TIME: 0 days 0 hours 0 minutes 5 seconds 649 msec
