                         Program Version 6.1.0  -  RELEASE   -
|  1> !HF DEF2-SVP
|  2> * xyzfile 0 1 C3_propargyl_indole.xyz
|  3>
|  4>                          ****END OF INPUT****

CARTESIAN COORDINATES (ANGSTROEM)
---------------------------------
  C      5.421400  -11.256900    0.000000
  C      5.421400  -12.756900    0.000000
  C      6.720400  -13.506900    0.000000
  C      8.019400  -12.756900    0.000000
  C      8.019400  -11.256900    0.000000
  C      6.720400  -10.506900    0.000000
  N      9.446000  -13.220400    0.000000
  C     10.327700  -12.006900    0.000000
  C      9.446000  -10.793400    0.000000
  C      9.909500   -9.366800    0.000000
  C     11.376800   -9.054900    0.000000
  C     12.844000   -8.743100    0.000000
  H      4.527660  -10.740910    0.000000
  H      4.527660  -13.272890    0.000000
  H      6.720400  -14.538900    0.000000
  H      6.720400   -9.474900    0.000000
  H      9.750230  -14.156720    0.000000
  H     11.359700  -12.006900    0.000000
  H      9.193520   -8.571650    0.000000
  H     10.240140   -8.349170    0.000000
  H     13.816290   -8.536480    0.000000

 Total Charge           Charge          ....    0
 Multiplicity           Mult            ....    1
 Number of Electrons    NEL             ....   82
 Basis Dimension        Dim             ....  213

ORBITAL ENERGIES
----------------

  NO   OCC          E(Eh)            E(eV)
   0   2.0000     -15.604937      -424.6319
   1   2.0000     -11.334469      -308.4266
   2   2.0000     -11.307109      -307.6821
   3   2.0000     -11.305700      -307.6438
   4   2.0000     -11.287957      -307.1609
   5   2.0000     -11.280252      -306.9513
   6   2.0000     -11.278723      -306.9097
   7   2.0000     -11.263825      -306.5043
   8   2.0000     -11.262583      -306.4705
   9   2.0000     -11.261251      -306.4342
  10   2.0000     -11.259362      -306.3828
  11   2.0000     -11.253859      -306.2331
  12   2.0000      -1.206870       -32.8406
  13   2.0000      -1.131215       -30.7819
  14   2.0000      -1.072787       -29.1920
  15   2.0000      -1.013037       -27.5661
  16   2.0000      -0.964892       -26.2561
  17   2.0000      -0.941658       -25.6238
  18   2.0000      -0.919883       -25.0313
  19   2.0000      -0.827528       -22.5182
  20   2.0000      -0.813078       -22.1250
  21   2.0000      -0.783524       -21.3208
  22   2.0000      -0.757774       -20.6201
  23   2.0000      -0.714707       -19.4482
  24   2.0000      -0.682163       -18.5626
  25   2.0000      -0.652410       -17.7530
  26   2.0000      -0.645481       -17.5644
  27   2.0000      -0.607062       -16.5190
  28   2.0000      -0.585917       -15.9436
  29   2.0000      -0.569152       -15.4874
  30   2.0000      -0.550354       -14.9759
  31   2.0000      -0.537090       -14.6150
  32   2.0000      -0.510469       -13.8906
  33   2.0000      -0.495747       -13.4900
  34   2.0000      -0.457789       -12.4571
  35   2.0000      -0.434860       -11.8331
  36   2.0000      -0.371424       -10.1070
  37   2.0000      -0.369604       -10.0574
  38   2.0000      -0.310242        -8.4421
  39   2.0000      -0.293514        -7.9869
  40   2.0000      -0.243902        -6.6369
  41   0.0000       0.071787         1.9534
  42   0.0000       0.087280         2.3750
  43   0.0000       0.131876         3.5885
  44   0.0000       0.143954         3.9172
  45   0.0000       0.155335         4.2269

MULLIKEN ATOMIC CHARGES
-----------------------
   0 C :   -0.035378
   1 C :   -0.006469
   2 C :   -0.038965
   3 C :    0.216144
   4 C :   -0.118550
   5 C :    0.022820
   6 N :   -0.456402
   7 C :    0.238432
   8 C :   -0.003745
   9 C :   -0.289203
  10 C :   -0.022774
  11 C :   -0.089341
  12 H :    0.021962
  13 H :    0.027096
  14 H :    0.010609
  15 H :    0.003506
  16 H :    0.153871
  17 H :    0.038043
  18 H :    0.086290
  19 H :    0.187429
  20 H :    0.054624
Sum of atomic charges:   -0.0000000

LOEWDIN ATOMIC CHARGES
----------------------
   0 C :   -0.032165
   1 C :   -0.011291
   2 C :   -0.042299
   3 C :    0.076545
   4 C :   -0.051265
   5 C :   -0.012236
   6 N :   -0.078222
   7 C :    0.062631
   8 C :   -0.037725
   9 C :   -0.198880
  10 C :   -0.024309
  11 C :   -0.049294
  12 H :    0.010219
  13 H :    0.012715
  14 H :    0.009949
  15 H :    0.005896
  16 H :    0.068456
  17 H :    0.011451
  18 H :    0.112836
  19 H :    0.152962
  20 H :    0.014025

  Mayer bond orders larger than 0.100000
B(  0-C ,  1-C ) :   1.3482 B(  0-C ,  5-C ) :   1.4874 B(  0-C , 12-H ) :   0.9986
B(  1-C ,  2-C ) :   1.4652 B(  1-C , 13-H ) :   0.9987 B(  2-C ,  3-C ) :   1.3282
B(  2-C , 14-H ) :   1.0058 B(  3-C ,  4-C ) :   1.3132 B(  3-C ,  6-N ) :   1.0416
B(  4-C ,  5-C ) :   1.3111 B(  4-C ,  8-C ) :   1.1929 B(  5-C , 15-H ) :   0.9992
B(  6-N ,  7-C ) :   1.0064 B(  6-N , 16-H ) :   0.9528 B(  7-C ,  8-C ) :   1.6799
B(  7-C , 17-H ) :   0.9906 B(  8-C ,  9-C ) :   0.9113 B(  9-C , 10-C ) :   1.1398
B(  9-C , 11-C ) :   0.1275 B(  9-C , 18-H ) :   0.8091 B(  9-C , 19-H ) :   0.4424
B( 10-C , 11-C ) :   1.9657 B( 10-C , 19-H ) :   0.4013 B( 11-C , 20-H ) :   1.0356
B( 18-H , 19-H ) :   0.1632

FINAL SINGLE POINT ENERGY      -475.362909978721

DIPOLE MOMENT
-------------

Method             : SCF
Type of density    : Electron Density
Multiplicity       :   1
Irrep              :   0
Energy             :  -475.3629099787207224 Eh
Basis              : AO
                                X                 Y                 Z
Electronic contribution:      1.109969364      -1.576100937      -0.000000000
Nuclear contribution   :     -0.876677959       1.766211804       0.000000000
                        -----------------------------------------
Total Dipole Moment    :      0.233291405       0.190110867      -0.000000000
                        -----------------------------------------
Magnitude (a.u.)       :      0.300943552
Magnitude (Debye)      :      0.764937718

Rotational constants in cm-1:             0.073500             0.017154             0.013908
Rotational constants in MHz :          2203.459766           514.272272           416.957317

                             ****ORCA TERMINATED NORMALLY****
TOTAL RUN TIME: 0 days 0 hours 0 minutes 12 seconds 584 msec
