                         Program Version 6.1.0  -  RELEASE   -
|  1> ! HF DEF2-SVP
|  2> * XYZ 0 1
|  3> N         18.51030      -12.55830        0.00000
|  4> C         16.82490      -12.01560        0.00000
|  5> C         16.82490      -10.23440        0.00000
|  6> C         18.51030       -9.69150        0.00000
|  7> C         15.28220      -12.90620        0.00000
|  8> C         15.28220       -9.34380        0.00000
|  9> C         19.54980      -11.12500        0.00000
| 10> C         13.73970      -12.01560        0.00000
| 11> C         13.73970      -10.23440        0.00000
| 12> H         18.85330      -13.60800        0.00000
| 13> H         18.85330       -8.64180        0.00000
| 14> H         15.28220      -14.01050        0.00000
| 15> H         15.28220       -8.23950        0.00000
| 16> H         20.65410      -11.12500        0.00000
| 17> H         12.78340      -12.56780        0.00000
| 18> H         12.78340       -9.68220        0.00000
| 19> **                         ****END OF INPUT****

CARTESIAN COORDINATES (ANGSTROEM)
---------------------------------
  N     18.510300  -12.558300    0.000000
  C     16.824900  -12.015600    0.000000
  C     16.824900  -10.234400    0.000000
  C     18.510300   -9.691500    0.000000
  C     15.282200  -12.906200    0.000000
  C     15.282200   -9.343800    0.000000
  C     19.549800  -11.125000    0.000000
  C     13.739700  -12.015600    0.000000
  C     13.739700  -10.234400    0.000000
  H     18.853300  -13.608000    0.000000
  H     18.853300   -8.641800    0.000000
  H     15.282200  -14.010500    0.000000
  H     15.282200   -8.239500    0.000000
  H     20.654100  -11.125000    0.000000
  H     12.783400  -12.567800    0.000000
  H     12.783400   -9.682200    0.000000

 Total Charge           Charge          ....    0
 Multiplicity           Mult            ....    1
 Number of Electrons    NEL             ....   62
 Basis Dimension        Dim             ....  161

ORBITAL ENERGIES
----------------

  NO   OCC          E(Eh)            E(eV)
   0   2.0000     -15.632002      -425.3684
   1   2.0000     -11.390630      -309.9548
   2   2.0000     -11.375261      -309.5366
   3   2.0000     -11.360591      -309.1374
   4   2.0000     -11.344412      -308.6972
   5   2.0000     -11.343252      -308.6656
   6   2.0000     -11.342522      -308.6457
   7   2.0000     -11.336851      -308.4914
   8   2.0000     -11.335975      -308.4676
   9   2.0000      -1.076176       -29.2842
  10   2.0000      -0.966764       -26.3070
  11   2.0000      -0.930521       -25.3208
  12   2.0000      -0.898201       -24.4413
  13   2.0000      -0.881357       -23.9830
  14   2.0000      -0.801614       -21.8130
  15   2.0000      -0.768902       -20.9229
  16   2.0000      -0.756747       -20.5921
  17   2.0000      -0.659350       -17.9418
  18   2.0000      -0.628032       -17.0896
  19   2.0000      -0.591634       -16.0992
  20   2.0000      -0.547761       -14.9053
  21   2.0000      -0.520356       -14.1596
  22   2.0000      -0.504173       -13.7193
  23   2.0000      -0.484141       -13.1741
  24   2.0000      -0.462162       -12.5761
  25   2.0000      -0.452701       -12.3186
  26   2.0000      -0.452568       -12.3150
  27   2.0000      -0.378483       -10.2990
  28   2.0000      -0.329115        -8.9557
  29   2.0000      -0.278182        -7.5697
  30   2.0000      -0.261378        -7.1125
  31   0.0000       0.031396         0.8543
  32   0.0000       0.063843         1.7373
  33   0.0000       0.104179         2.8349
  34   0.0000       0.110846         3.0163
  35   0.0000       0.165127         4.4933

MULLIKEN ATOMIC CHARGES
-----------------------
   0 N :   -0.543228
   1 C :    0.153134
   2 C :   -0.115290
   3 C :   -0.121314
   4 C :   -0.107240
   5 C :   -0.058981
   6 C :    0.099948
   7 C :   -0.086804
   8 C :   -0.110717
   9 H :    0.228083
  10 H :    0.110656
  11 H :    0.104619
  12 H :    0.105099
  13 H :    0.128949
  14 H :    0.108303
  15 H :    0.104784
Sum of atomic charges:   -0.0000000

LOEWDIN ATOMIC CHARGES
----------------------
   0 N :   -0.245829
   1 C :    0.083302
   2 C :   -0.047440
   3 C :   -0.071975
   4 C :   -0.058643
   5 C :   -0.022710
   6 C :    0.087346
   7 C :   -0.022456
   8 C :   -0.047487
   9 H :    0.120577
  10 H :    0.039220
  11 H :    0.034618
  12 H :    0.036333
  13 H :    0.043502
  14 H :    0.037079
  15 H :    0.034562

  Mayer bond orders larger than 0.100000
B(  0-N ,  1-C ) :   0.9467 B(  0-N ,  6-C ) :   0.9470 B(  0-N ,  9-H ) :   0.8908
B(  1-C ,  2-C ) :   1.2835 B(  1-C ,  4-C ) :   1.2926 B(  2-C ,  3-C ) :   1.0870
B(  2-C ,  5-C ) :   1.2965 B(  3-C ,  6-C ) :   1.7032 B(  3-C , 10-H ) :   0.9607
B(  4-C ,  5-C ) :   0.1056 B(  4-C ,  7-C ) :   1.4199 B(  4-C , 11-H ) :   0.9572
B(  5-C ,  8-C ) :   1.4370 B(  5-C , 12-H ) :   0.9570 B(  6-C , 13-H ) :   0.9484
B(  7-C ,  8-C ) :   1.3409 B(  7-C , 14-H ) :   0.9557 B(  8-C , 15-H ) :   0.9563

FINAL SINGLE POINT ENERGY      -360.350907975301

DIPOLE MOMENT
-------------

Method             : SCF
Type of density    : Electron Density
Multiplicity       :   1
Irrep              :   0
Energy             :  -360.3509079753013680 Eh
Basis              : AO
                                X                 Y                 Z
Electronic contribution:      1.242288968      -0.295884487       0.000000000
Nuclear contribution   :     -0.943783276       0.152657422       0.000000000
                        -----------------------------------------
Total Dipole Moment    :      0.298505693      -0.143227065       0.000000000
                        -----------------------------------------
Magnitude (a.u.)       :      0.331088570
Magnitude (Debye)      :      0.841560264

Rotational constants in cm-1:             0.083865             0.033880             0.024132
Rotational constants in MHz :          2514.208060          1015.709241           723.445946

                             ****ORCA TERMINATED NORMALLY****
TOTAL RUN TIME: 0 days 0 hours 0 minutes 4 seconds 521 msec
